# LAMMPS data file written by OVITO Basic 3.9.4

2304 atoms
2 atom types

0.0 26.9814 xlo xhi
0.0 31.1556 ylo yhi
0.0 29.2844 zlo zhi

Atoms  # full

1 1 2 0.0 1.2284312867 1.4274502356 1.5172364663
2 1 1 0.0 1.2051618893 1.4427550008 0.5462813344
3 1 1 0.0 0.4111057113 1.8668062566 1.7985417308
4 1 2 0.0 3.5074218003 2.5743329132 2.4563677329
5 1 1 0.0 2.698222382 2.1462164737 2.1297081387
6 1 1 0.0 3.4606937928 3.4764905815 2.1019139142
7 1 2 0.0 1.0487277459 1.3530847579 5.9321881634
8 1 1 0.0 1.0755361427 1.3680878913 6.9006830602
9 1 1 0.0 1.8560214943 1.8152705828 5.6537531727
10 1 2 0.0 3.3327390854 2.663342217 5.1845745672
11 1 1 0.0 3.4134019805 2.6349422753 4.2176770457
12 1 1 0.0 4.1317562588 2.2184827204 5.5096122778
13 1 2 0.0 3.3185068066 5.1019860433 1.4255968616
14 1 1 0.0 3.3071082874 5.0706023479 0.4559715158
15 1 1 0.0 2.5048739156 5.5625251992 1.6786455489
16 1 2 0.0 1.0230669182 6.4839756467 2.1842740785
17 1 1 0.0 1.0182690948 6.5599133891 3.1498754897
18 1 1 0.0 1.0662710455 7.398736666 1.8624758131
19 1 2 0.0 3.2537289626 5.2899218867 5.9547566938
20 1 1 0.0 3.2445818614 5.2587544884 6.9248113668
21 1 1 0.0 3.2731073067 4.3595904192 5.6796179757
22 1 2 0.0 1.0268435564 6.6036283822 4.9871393248
23 1 1 0.0 0.2539990024 6.1345825895 5.3366500005
24 1 1 0.0 1.7987058709 6.1226627102 5.3253674857
25 1 2 0.0 1.1258535004 9.0878831385 1.3133438307
26 1 1 0.0 0.3683465475 9.5961914993 1.6411310561
27 1 1 0.0 1.911977011 9.5655801291 1.6231863648
28 1 2 0.0 3.3575019867 10.4535898633 2.1749964274
29 1 1 0.0 3.3858694766 10.4637334233 3.1450434893
30 1 1 0.0 4.167012046 9.9940777931 1.901326891
31 1 2 0.0 1.1827015348 9.1890993399 5.874561571
32 1 1 0.0 1.1479147424 9.1302212598 6.8424368553
33 1 1 0.0 1.1198018487 8.2744174673 5.5563896925
34 1 2 0.0 3.3662320538 10.5138105329 4.9158088791
35 1 1 0.0 2.5889774139 10.0417033617 5.2577553217
36 1 1 0.0 4.1265731018 10.035030469 5.2780167652
37 1 2 0.0 3.3966908664 13.0767858725 1.3788331116
38 1 1 0.0 3.3799400849 13.0390885363 0.4098460279
39 1 1 0.0 3.3641971854 12.1485933029 1.6603046135
40 1 2 0.0 1.1425929377 14.4008083179 2.362505411
41 1 1 0.0 1.9416932427 13.9773142795 2.0161682943
42 1 1 0.0 1.1893071738 15.3242149324 2.0682101164
43 1 2 0.0 3.3988580291 13.0656461602 5.9695360774
44 1 1 0.0 2.5855688118 13.4920792559 5.6610522569
45 1 1 0.0 3.394403944 12.1808664952 5.5715011777
46 1 2 0.0 1.0548635236 14.3026981502 5.1081455098
47 1 1 0.0 1.082425353 14.3380618772 4.1393707749
48 1 1 0.0 1.0695193518 15.2291670934 5.3952952714
49 1 2 0.0 5.6864967081 1.2880187717 1.3829742679
50 1 1 0.0 4.9179506791 1.7477473033 1.756959302
51 1 1 0.0 5.6399800092 0.3907460817 1.7498552301
52 1 2 0.0 7.933876254 2.5334086136 2.2973635239
53 1 1 0.0 7.1421887926 2.0745139241 1.9699065065
54 1 1 0.0 7.8611988341 3.43772588 1.957928534
55 1 2 0.0 5.60039514 1.4114865203 6.0269818038
56 1 1 0.0 5.6538120723 0.5025327502 5.6915507704
57 1 1 0.0 6.3964152811 1.8518188227 5.6886500924
58 1 2 0.0 7.8468160161 2.5990070174 5.0522947084
59 1 1 0.0 7.8874490159 2.5688902464 4.084038402
60 1 1 0.0 8.6370872462 2.1289191316 5.36060324
61 1 2 0.0 7.8110408168 5.147214984 1.3606481342
62 1 1 0.0 7.040434744 5.6377931495 1.683467588
63 1 1 0.0 8.5819792118 5.6352484617 1.6903881574
64 1 2 0.0 5.5712558233 6.5183162159 2.2338586491
65 1 1 0.0 5.5289100675 6.5255432056 3.203709535
66 1 1 0.0 4.7787205439 6.0377597877 1.9530348798
67 1 2 0.0 7.7388641626 5.2366940909 5.8676681464
68 1 1 0.0 7.7413630006 5.1962144138 6.8372078789
69 1 1 0.0 7.7712570438 4.3114853219 5.5787499709
70 1 2 0.0 5.4770613096 6.5578060774 4.9656406146
71 1 1 0.0 4.6945170011 6.1111755432 5.3262891282
72 1 1 0.0 6.2373364875 6.0588946577 5.3020819566
73 1 2 0.0 5.6547248706 9.1334320562 1.3993802912
74 1 1 0.0 5.6755506697 9.0691708084 0.4320786795
75 1 1 0.0 5.6293739913 8.2110297201 1.7004490114
76 1 2 0.0 7.9567995874 10.4714823888 2.2477525454
77 1 1 0.0 7.9304694276 10.453082765 3.2168048729
78 1 1 0.0 7.1652076394 9.9902678705 1.9626409119
79 1 2 0.0 5.5692148731 9.1427125428 5.9138198082
80 1 1 0.0 5.5418493818 8.240777423 5.5555753385
81 1 1 0.0 6.3862795446 9.5337868368 5.573636841
82 1 2 0.0 7.9222249899 10.4084370822 5.0168283918
83 1 1 0.0 8.738840953 10.0107667571 5.3490022332
84 1 1 0.0 7.9043802593 11.3080150525 5.3790574851
85 1 2 0.0 7.8482501191 13.0676920107 1.4035059167
86 1 1 0.0 7.8829318526 13.0074888427 0.4372692884
87 1 1 0.0 7.8831919182 12.1462022559 1.7093945812
88 1 2 0.0 5.591285953 14.3215359818 2.3824861097
89 1 1 0.0 4.8086775376 13.8632752467 2.0341184411
90 1 1 0.0 6.3508819384 13.8420132837 2.0171227829
91 1 2 0.0 7.9060807888 12.996289036 5.9995384526
92 1 1 0.0 7.1322564818 13.4913059658 5.6910052055
93 1 1 0.0 8.6717750799 13.4639590885 5.6290834105
94 1 2 0.0 5.6962114854 14.3987816942 5.1057387103
95 1 1 0.0 5.668019538 14.3758440047 4.1344905885
96 1 1 0.0 4.889439117 13.9467544388 5.3914486098
97 1 2 0.0 10.1756266651 1.3463783516 1.2422316472
98 1 1 0.0 9.3832416832 1.7614986918 1.6185905971
99 1 1 0.0 10.1691422743 0.4397804347 1.5876307162
100 1 2 0.0 12.3824285535 2.62989364 2.3002065687
101 1 1 0.0 11.618279168 2.1859068075 1.9025150376
102 1 1 0.0 12.3373961953 3.5467134659 1.9830240746
103 1 2 0.0 10.0771786373 1.2804728671 5.9547049181
104 1 1 0.0 10.0902872349 1.329236287 6.9223322867
105 1 1 0.0 10.8581218777 1.7754355577 5.6559268261
106 1 2 0.0 12.2580643289 2.6388241949 5.0543063747
107 1 1 0.0 12.2956931866 2.6142304341 4.0853586933
108 1 1 0.0 13.0662469846 2.1923192206 5.3507921995
109 1 2 0.0 12.215349563 5.2024432573 1.3709149532
110 1 1 0.0 12.2444782993 5.2036010288 0.3994452311
111 1 1 0.0 13.0224104 5.6664444398 1.6430515028
112 1 2 0.0 9.9980991089 6.5087611825 2.3089505165
113 1 1 0.0 10.7838651962 6.0405790172 1.9837692918
114 1 1 0.0 10.0855149815 7.4115022913 1.9658736102
115 1 2 0.0 12.264588832 5.2779432883 5.9479877319
116 1 1 0.0 11.4605473073 5.7256473767 5.6389350281
117 1 1 0.0 12.2043768315 4.3714908583 5.611623512
118 1 2 0.0 10.0191059498 6.5560316489 5.0619150508
119 1 1 0.0 9.9912530797 6.5383474308 4.0926346396
120 1 1 0.0 9.2051642662 6.1143442377 5.349920766
121 1 2 0.0 10.2618361202 9.0978088422 1.3570687404
122 1 1 0.0 9.5210719277 9.6303186349 1.6788603378
123 1 1 0.0 11.0586107495 9.5608664785 1.6659710724
124 1 2 0.0 12.427343428 10.4876695663 2.2278746905
125 1 1 0.0 12.4453135374 10.5397215541 3.1977392014
126 1 1 0.0 12.4195819073 11.4064295445 1.9181290219
127 1 2 0.0 10.3026002197 9.1793141722 5.9466327639
128 1 1 0.0 10.2728298755 9.1324393723 6.9140225902
129 1 1 0.0 10.2119634343 8.263496673 5.6429099407
130 1 2 0.0 12.4740580195 10.5430613744 4.9511422031
131 1 1 0.0 11.7212626614 10.0451010409 5.3074589267
132 1 1 0.0 13.2615835358 10.0886705815 5.2900021643
133 1 2 0.0 12.3988395518 13.0917688639 1.3263505196
134 1 1 0.0 11.6057816509 13.5447123087 1.6550044599
135 1 1 0.0 13.1491741806 13.576442534 1.7026423134
136 1 2 0.0 10.1385504786 14.3642263649 2.2414947181
137 1 1 0.0 10.101671364 14.3611130438 3.2117463541
138 1 1 0.0 9.3309054046 13.9108193878 1.9550813335
139 1 2 0.0 12.2751585698 13.0811659158 6.0141713698
140 1 1 0.0 12.3495424132 12.1925264377 5.634346599
141 1 1 0.0 13.079954902 13.5375123785 5.7181657398
142 1 2 0.0 10.0567424483 14.3226313792 4.972916763
143 1 1 0.0 10.8525288273 13.9012586649 5.3342619497
144 1 1 0.0 10.0679753386 15.2263693878 5.3295468532
145 1 2 0.0 1.1443257893 1.370339501 8.6925082435
146 1 1 0.0 1.1787392836 0.4629443188 9.0326724595
147 1 1 0.0 1.9392961569 1.8024338553 9.0434119062
148 1 2 0.0 3.4011882678 2.5466647881 9.6877893366
149 1 1 0.0 3.4318182756 2.5130817541 10.6565570849
150 1 1 0.0 4.1796285075 2.0546999834 9.3825183999
151 1 2 0.0 1.1817252576 1.4084594091 13.4319269851
152 1 1 0.0 0.4026748472 1.8406465106 13.0470582694
153 1 1 0.0 1.1597089262 0.5003617792 13.0896890203
154 1 2 0.0 3.4807906172 2.49901907 12.4327385398
155 1 1 0.0 2.6750727352 2.0956433736 12.7926967635
156 1 1 0.0 3.4607412338 3.416621764 12.747946984
157 1 2 0.0 3.2709544699 5.104733501 8.681562715
158 1 1 0.0 3.3155637768 4.2013893761 9.031042581
159 1 1 0.0 4.0789852473 5.538640896 8.9985727276
160 1 2 0.0 1.102293835 6.5085325997 9.6271601511
161 1 1 0.0 0.3176625468 6.0404716056 9.2978216494
162 1 1 0.0 1.8595543193 6.0051208216 9.2896041959
163 1 2 0.0 3.3153172394 5.0787456965 13.3125580377
164 1 1 0.0 2.5305174377 5.52724434 12.9589886372
165 1 1 0.0 4.0695213892 5.5729971516 12.9562807585
166 1 2 0.0 1.1337022568 6.4261809047 12.3591991554
167 1 1 0.0 1.1261254387 6.4753661991 11.3900345239
168 1 1 0.0 1.1633714904 7.3490707111 12.6594790053
169 1 2 0.0 1.0954476547 9.0409765411 8.6127260879
170 1 1 0.0 1.0837219434 8.1342778021 8.9592874039
171 1 1 0.0 1.9077034363 9.4353570881 8.9638549227
172 1 2 0.0 3.3998399625 10.2725629932 9.5401091023
173 1 1 0.0 3.4170981249 10.3237141126 10.5073632414
174 1 1 0.0 3.351862731 11.1941810248 9.2377131017
175 1 2 0.0 1.193877717 9.011826098 13.213447021
176 1 1 0.0 1.1752839417 9.0427785554 14.1826713127
177 1 1 0.0 0.4014486535 9.4921517385 12.9265352785
178 1 2 0.0 3.4616355226 10.3333645335 12.305489789
179 1 1 0.0 2.6648020742 9.880534151 12.6199228178
180 1 1 0.0 3.3945150325 11.2361612513 12.6522217539
181 1 2 0.0 3.2929683253 12.8828159156 8.7259637152
182 1 1 0.0 3.324926869 12.9499887766 7.7587168907
183 1 1 0.0 4.100043928 13.3293620006 9.0298333721
184 1 2 0.0 1.1308976905 14.3534448375 9.6462886931
185 1 1 0.0 0.3360893352 13.8867204602 9.3458693668
186 1 1 0.0 1.8740410942 13.813327842 9.3366668826
187 1 2 0.0 3.3438490295 12.9251814583 13.282265436
188 1 1 0.0 2.6060144191 13.4563118384 12.944425829
189 1 1 0.0 4.1448352579 13.3568082631 12.9459125702
190 1 2 0.0 1.2108415864 14.4474516295 12.3958271213
191 1 1 0.0 1.1727147004 14.4472643386 11.4269566233
192 1 1 0.0 0.4282016533 13.9434977577 12.6737697065
193 1 2 0.0 5.5930872651 1.1827302565 8.7637767173
194 1 1 0.0 5.59758451 1.2904066329 7.8001514205
195 1 1 0.0 6.3822077333 1.6610028751 9.0702933609
196 1 2 0.0 7.7693966418 2.5703271145 9.586817357
197 1 1 0.0 7.8203960188 2.5602599401 10.5571710388
198 1 1 0.0 8.5922025635 2.1515899524 9.2892503442
199 1 2 0.0 5.7269281666 1.168413983 13.2506144183
200 1 1 0.0 5.7065051179 1.1888140561 14.2196647094
201 1 1 0.0 4.9216358667 1.6338798057 12.9726558745
202 1 2 0.0 7.8944138515 2.5154313552 12.2973504586
203 1 1 0.0 7.1310622417 2.0347712636 12.6564224756
204 1 1 0.0 7.8306309978 3.4131998644 12.6598551739
205 1 2 0.0 7.7834936207 5.1340905693 8.6083352087
206 1 1 0.0 6.981461792 5.5617587917 8.9482821571
207 1 1 0.0 7.7516175237 4.2269337775 8.9504735269
208 1 2 0.0 5.5378045617 6.3747065872 9.5740505976
209 1 1 0.0 5.5488505722 6.3901009084 10.5449272424
210 1 1 0.0 5.5879029173 7.3017971917 9.2979083555
211 1 2 0.0 7.7606739451 5.0818605569 13.2686084527
212 1 1 0.0 7.793646261 5.1007360065 14.2384893905
213 1 1 0.0 8.5598908944 5.5478611761 12.9763192466
214 1 2 0.0 5.5378356098 6.3879521259 12.3152357005
215 1 1 0.0 6.3214397157 5.9314311931 12.6597023858
216 1 1 0.0 5.5920065552 7.2876107439 12.6748298335
217 1 2 0.0 5.6777846446 9.0212310204 8.6949225287
218 1 1 0.0 5.6380342542 9.0635247011 7.7279856712
219 1 1 0.0 4.8746217394 9.4789360004 8.9942228717
220 1 2 0.0 7.9454974408 10.2768990597 9.6324502318
221 1 1 0.0 7.1425280321 9.85159103 9.2928774834
222 1 1 0.0 7.9124738205 11.1897891002 9.3041159511
223 1 2 0.0 5.6794859125 8.9554294977 13.2878676555
224 1 1 0.0 4.9324722201 9.4604747953 12.9343170326
225 1 1 0.0 6.4722510527 9.4103977543 12.9580944129
226 1 2 0.0 7.8873727712 10.2849894235 12.3746029923
227 1 1 0.0 7.9236919003 10.2752879807 11.404541639
228 1 1 0.0 8.6945446074 9.8315241072 12.663705885
229 1 2 0.0 7.8804981161 12.8826199421 8.7230608438
230 1 1 0.0 7.9072587225 12.9249159549 7.7531321342
231 1 1 0.0 8.6514717009 13.3903790798 9.0182516674
232 1 2 0.0 5.5640731596 14.1491096446 9.5738973143
233 1 1 0.0 6.3822436715 13.7378966501 9.2563094399
234 1 1 0.0 5.591991064 15.0676293408 9.2590660638
235 1 2 0.0 7.9421001991 12.8999190952 13.2788357178
236 1 1 0.0 7.1289870838 13.2944227893 12.9282806675
237 1 1 0.0 7.9212495286 11.9758883969 12.9854905881
238 1 2 0.0 5.6348310508 14.1020313566 12.3178962875
239 1 1 0.0 5.6031731038 14.1198483623 11.3479015594
240 1 1 0.0 5.6736489989 15.0290412394 12.5956667182
241 1 2 0.0 10.0667113987 1.3570681228 8.7150048046
242 1 1 0.0 10.082133872 0.4418980996 9.0384857885
243 1 1 0.0 10.874491685 1.7671883742 9.0602074887
244 1 2 0.0 12.3733774999 2.5703249718 9.6195244651
245 1 1 0.0 13.1729295058 2.1302333797 9.2878576563
246 1 1 0.0 12.4096471285 3.4718631727 9.2683950811
247 1 2 0.0 10.1979170663 1.2724146035 13.1506074753
248 1 1 0.0 10.1656078732 1.3095957373 14.1206039964
249 1 1 0.0 9.3897676098 1.716338544 12.8504762825
250 1 2 0.0 12.4559864309 2.6116591109 12.3671033151
251 1 1 0.0 12.4347888233 2.5973544145 11.3979284428
252 1 1 0.0 11.6595724669 2.1298078168 12.6431458938
253 1 2 0.0 12.4029400646 5.1976355555 8.6669081452
254 1 1 0.0 12.3680719307 5.2301161629 7.6969382817
255 1 1 0.0 11.5791007768 5.6123150388 8.9613315973
256 1 2 0.0 10.0499350743 6.4077390204 9.553580442
257 1 1 0.0 9.9980388564 6.339881457 10.5179520082
258 1 1 0.0 9.257850262 5.9617586415 9.214510173
259 1 2 0.0 12.3553462712 5.2085332305 13.3024039036
260 1 1 0.0 12.4084654474 4.2983694546 12.9716594124
261 1 1 0.0 13.1530240747 5.6481066368 12.9682387299
262 1 2 0.0 10.0170522013 6.3798785005 12.365451926
263 1 1 0.0 10.8352395703 5.9780192503 12.6959706045
264 1 1 0.0 10.0564594314 7.3053701688 12.651210898
265 1 2 0.0 10.2125504733 9.0307235467 8.7178172447
266 1 1 0.0 9.395469128 9.45009449 9.0314039675
267 1 1 0.0 10.1600385372 8.1109244457 9.0185562389
268 1 2 0.0 12.3917609125 10.4005559017 9.6248546959
269 1 1 0.0 11.6089009032 9.9208842718 9.3064972905
270 1 1 0.0 13.150641804 9.9241988618 9.2566681749
271 1 2 0.0 10.1669691257 9.006169038 13.2444843064
272 1 1 0.0 10.2080798153 9.027181891 14.2128889232
273 1 1 0.0 10.9628821277 9.4728923908 12.946909182
274 1 2 0.0 12.4342065803 10.3541722815 12.3878977237
275 1 1 0.0 12.4302811618 10.3763669239 11.4181859562
276 1 1 0.0 12.4801561576 11.2819528411 12.6642354269
277 1 2 0.0 12.371794709 13.012263768 8.7955102477
278 1 1 0.0 12.3325482105 12.9699006775 7.8283661335
279 1 1 0.0 12.3804383037 12.0895873514 9.0982105065
280 1 2 0.0 10.0963215717 14.3291274349 9.5956317775
281 1 1 0.0 10.1271346446 14.2879299149 10.564296506
282 1 1 0.0 10.9056126414 13.8776757551 9.306892944
283 1 2 0.0 12.5196368294 13.0078972244 13.202517807
284 1 1 0.0 12.479891913 13.0337178436 14.1717062987
285 1 1 0.0 11.6950067926 13.42764863 12.9096937306
286 1 2 0.0 10.197978565 14.1983338037 12.3484405728
287 1 1 0.0 9.4063759 13.7516601753 12.6888925641
288 1 1 0.0 10.1502488727 15.1112006559 12.6708496858
289 1 2 0.0 1.2284323333 1.4274505525 16.1594339274
290 1 1 0.0 1.2051628234 1.4427555601 15.1884786197
291 1 1 0.0 0.4111066 1.8668066778 16.4407386267
292 1 2 0.0 3.5074249577 2.5743318996 17.0985564827
293 1 1 0.0 2.698224188 2.1462161255 16.7718992563
294 1 1 0.0 3.4606955362 3.4764904432 16.7441049671
295 1 2 0.0 1.0487283157 1.3530837834 20.5743723946
296 1 1 0.0 1.0755363486 1.3680869207 21.5428672705
297 1 1 0.0 1.8560222818 1.8152694105 20.2959377664
298 1 2 0.0 3.3327404925 2.663341089 19.8267615772
299 1 1 0.0 3.4134046576 2.6349408741 18.859864187
300 1 1 0.0 4.13175733 2.2184819138 20.1518003697
301 1 2 0.0 3.3185067222 5.1019862378 16.0677940513
302 1 1 0.0 3.3071081065 5.0706021386 15.0981685856
303 1 1 0.0 2.5048734386 5.5625249395 16.3208421247
304 1 2 0.0 1.0230656688 6.4839751764 16.8264642097
305 1 1 0.0 1.0182681702 6.5599131857 17.7920656736
306 1 1 0.0 1.066270265 7.3987362251 16.5046661827
307 1 2 0.0 3.2537287988 5.2899207221 20.596941547
308 1 1 0.0 3.2445817621 5.2587533239 21.5669962131
309 1 1 0.0 3.2731075853 4.3595892439 20.3218029
310 1 2 0.0 1.0268435536 6.6036283456 19.6293266715
311 1 1 0.0 0.2539989266 6.1345824558 19.978837063
312 1 1 0.0 1.7987058694 6.1226621684 19.9675540569
313 1 2 0.0 1.1258533438 9.0878829498 15.9555399208
314 1 1 0.0 0.3683461877 9.5961921909 16.2833254198
315 1 1 0.0 1.9119770406 9.565580742 16.2653809001
316 1 2 0.0 3.357500773 10.4535916376 16.8171850191
317 1 1 0.0 3.385868162 10.4637358836 17.7872322296
318 1 1 0.0 4.1670111925 9.9940792265 16.543516629
319 1 2 0.0 1.182701824 9.1890993389 20.5167474121
320 1 1 0.0 1.1479151021 9.1302213341 21.4846226898
321 1 1 0.0 1.1198022046 8.2744174372 20.1985756642
322 1 2 0.0 3.3662318224 10.5138118048 19.5579956031
323 1 1 0.0 2.5889774563 10.041704189 19.8999420241
324 1 1 0.0 4.1265732286 10.0350314256 19.9202023313
325 1 2 0.0 3.3966910117 13.0767867005 16.0210230096
326 1 1 0.0 3.3799407163 13.0390890237 15.0520358355
327 1 1 0.0 3.3641971878 12.1485941777 16.3024946602
328 1 2 0.0 1.1425921378 14.4008072571 17.0046921656
329 1 1 0.0 1.9416931036 13.9773141183 16.6583555395
330 1 1 0.0 1.1893070179 15.3242149186 16.7104001536
331 1 2 0.0 3.3988591221 13.0656477077 20.6117217776
332 1 1 0.0 2.5855693944 13.492080045 20.3032382476
333 1 1 0.0 3.3944049744 12.1808676561 20.2136877243
334 1 2 0.0 1.0548631798 14.3026968506 19.7503308433
335 1 1 0.0 1.0824250951 14.3380598507 18.7815560684
336 1 1 0.0 1.0695191772 15.2291660092 20.037479823
337 1 2 0.0 5.6864972278 1.2880179152 16.0251621847
338 1 1 0.0 4.9179513701 1.7477469886 16.3991470576
339 1 1 0.0 5.6399801693 0.3907452929 16.3920434978
340 1 2 0.0 7.9338765751 2.5334065719 16.9395492375
341 1 1 0.0 7.142188816 2.07451226 16.6120922519
342 1 1 0.0 7.8611981334 3.4377249368 16.6001171925
343 1 2 0.0 5.6003961267 1.4114856901 20.6691696128
344 1 1 0.0 5.653812624 0.50253223 20.3337373981
345 1 1 0.0 6.3964159456 1.8518181501 20.3308372719
346 1 2 0.0 7.8468161661 2.5990058303 19.6944792237
347 1 1 0.0 7.8874486819 2.5688882371 18.7262229242
348 1 1 0.0 8.6370875836 2.1289182679 20.0027877507
349 1 2 0.0 7.8110391263 5.1472149274 16.0028456037
350 1 1 0.0 7.0404328821 5.6377939512 16.3256633954
351 1 1 0.0 8.5819777911 5.6352490583 16.3325841118
352 1 2 0.0 5.5712549613 6.5183177793 16.8760487693
353 1 1 0.0 5.5289095892 6.5255442003 17.8458997621
354 1 1 0.0 4.7787195962 6.0377610101 16.5952256649
355 1 2 0.0 7.7388640676 5.236692429 20.5098522882
356 1 1 0.0 7.7413630597 5.1962118752 21.4793919421
357 1 1 0.0 7.7712572163 4.3114839486 20.2209332563
358 1 2 0.0 5.4770613321 6.5578058967 19.6078283876
359 1 1 0.0 4.6945168687 6.1111749106 19.968476079
360 1 1 0.0 6.2373365093 6.0588937911 19.9442687993
361 1 2 0.0 5.6547241127 9.1334343255 16.041576913
362 1 1 0.0 5.6755501625 9.0691725567 15.0742752241
363 1 1 0.0 5.6293729701 8.211031992 16.3426454603
364 1 2 0.0 7.9567995474 10.471485182 16.8899399733
365 1 1 0.0 7.9304700558 10.4530861952 17.8589923366
366 1 1 0.0 7.1652073741 9.9902702496 16.6048297792
367 1 2 0.0 5.5692148272 9.1427135411 20.5560036085
368 1 1 0.0 5.5418494613 8.2407779876 20.1977603639
369 1 1 0.0 6.3862796098 9.5337875039 20.2158206814
370 1 2 0.0 7.9222254802 10.4084384624 19.6590138219
371 1 1 0.0 8.7388412864 10.0107677042 19.9911875956
372 1 1 0.0 7.9043805209 11.3080160653 20.0212438875
373 1 2 0.0 7.8482497173 13.0676941899 16.0456944652
374 1 1 0.0 7.8829305006 13.0074911585 15.0794576952
375 1 1 0.0 7.883191521 12.1462042733 16.3515828121
376 1 2 0.0 5.5912857387 14.3215369762 17.0246720627
377 1 1 0.0 4.8086771334 13.8632756404 16.6763054336
378 1 1 0.0 6.3508818181 13.842013835 16.6593093676
379 1 2 0.0 7.9060798978 12.9962900728 20.6417248338
380 1 1 0.0 7.1322558528 13.4913068672 20.3331907581
381 1 1 0.0 8.6717743536 13.4639595645 20.2712695366
382 1 2 0.0 5.6962116761 14.3987826695 19.7479232954
383 1 1 0.0 5.6680199097 14.3758453394 18.7766751462
384 1 1 0.0 4.8894391759 13.9467554523 20.0336329068
385 1 2 0.0 10.175627603 1.3463782873 15.8844218447
386 1 1 0.0 9.3832419116 1.7614983729 16.2607796606
387 1 1 0.0 10.1691428258 0.4397800735 16.2298202493
388 1 2 0.0 12.3824286183 2.6298932628 16.9423954844
389 1 1 0.0 11.6182794438 2.1859064327 16.5447036028
390 1 1 0.0 12.3373956701 3.5467137198 16.6252147834
391 1 2 0.0 10.0771790689 1.2804723158 20.5968892166
392 1 1 0.0 10.0902873033 1.3292358165 21.5645165807
393 1 1 0.0 10.8581224362 1.775435112 20.2981114143
394 1 2 0.0 12.2580644548 2.6388240606 19.6964926586
395 1 1 0.0 12.2956928627 2.6142302339 18.7275448841
396 1 1 0.0 13.0662472076 2.1923189724 19.992977999
397 1 2 0.0 12.2153476317 5.2024434303 16.0131116703
398 1 1 0.0 12.2444762226 5.203601239 15.0416418181
399 1 1 0.0 13.0224087465 5.6664444651 16.2852475573
400 1 2 0.0 9.9980976833 6.5087614349 16.9511408168
401 1 1 0.0 10.7838642879 6.040579074 16.6259608804
402 1 1 0.0 10.0855142844 7.4115028028 16.6080647829
403 1 2 0.0 12.2645892181 5.2779431512 20.5901729496
404 1 1 0.0 11.4605474439 5.725647192 20.2811209843
405 1 1 0.0 12.204377073 4.3714906467 20.253809099
406 1 2 0.0 10.0191058336 6.5560318822 19.7041027676
407 1 1 0.0 9.9912529654 6.5383477816 18.7348223003
408 1 1 0.0 9.2051643336 6.1143439314 19.9921081358
409 1 2 0.0 10.2618356096 9.0978094702 15.9992649909
410 1 1 0.0 9.5210713614 9.6303203438 16.3210547214
411 1 1 0.0 11.0586105764 9.5608677822 16.3081655381
412 1 2 0.0 12.4273433376 10.4876704928 16.8700637829
413 1 1 0.0 12.4453136452 10.5397228917 17.839928346
414 1 1 0.0 12.4195817629 11.4064303934 16.5603177887
415 1 2 0.0 10.3025995916 9.1793144338 20.5888180098
416 1 1 0.0 10.2728291025 9.1324401967 21.5562078364
417 1 1 0.0 10.2119628661 8.2634967262 20.2850957822
418 1 2 0.0 12.4740581257 10.5430612118 19.5933292854
419 1 1 0.0 11.7212627148 10.0451006597 19.9496456735
420 1 1 0.0 13.2615837312 10.0886703935 19.9321891302
421 1 2 0.0 12.3988392531 13.0917685896 15.9685416608
422 1 1 0.0 11.605781089 13.5447126019 16.297194181
423 1 1 0.0 13.1491739395 13.5764427704 16.3448327754
424 1 2 0.0 10.1385502598 14.3642265095 16.8836807604
425 1 1 0.0 10.1016707871 14.361112922 17.8539324703
426 1 1 0.0 9.3309048993 13.9108199993 16.5972671967
427 1 2 0.0 12.2751576086 13.0811663383 20.6563563142
428 1 1 0.0 12.3495418652 12.1925265722 20.2765323306
429 1 1 0.0 13.0799542086 13.537512592 20.3603510975
430 1 2 0.0 10.056741982 14.3226311285 19.6151013301
431 1 1 0.0 10.8525282683 13.9012582938 19.976446582
432 1 1 0.0 10.0679751152 15.2263691349 19.971731322
433 1 2 0.0 1.1443251591 1.3703388984 23.3346936988
434 1 1 0.0 1.1787383054 0.4629441202 23.6748588731
435 1 1 0.0 1.939295162 1.8024334121 23.6855977802
436 1 2 0.0 3.4011881813 2.5466645033 24.3299775316
437 1 1 0.0 3.431818282 2.5130815203 25.2987451844
438 1 1 0.0 4.1796281907 2.0546992482 24.0247066899
439 1 2 0.0 1.1817259907 1.4084584265 28.0741241562
440 1 1 0.0 0.4026760603 1.8406451651 27.6892541643
441 1 1 0.0 1.1597101571 0.5003609609 27.7318857967
442 1 2 0.0 3.4807915242 2.4990186589 27.0749300382
443 1 1 0.0 2.6750740372 2.0956429676 27.4348890241
444 1 1 0.0 3.4607421914 3.4166210797 27.3901391862
445 1 2 0.0 3.2709549758 5.1047333488 23.3237480118
446 1 1 0.0 3.3155640682 4.2013895417 23.6732286953
447 1 1 0.0 4.0789856184 5.5386408839 23.6407580595
448 1 2 0.0 1.1022939752 6.5085327819 24.2693486811
449 1 1 0.0 0.3176627459 6.0404719165 23.940009857
450 1 1 0.0 1.8595543408 6.0051212188 23.9317921921
451 1 2 0.0 3.3153186551 5.0787458948 27.954754919
452 1 1 0.0 2.5305189657 5.5272436671 27.6011842571
453 1 1 0.0 4.0695224982 5.57299667 27.598476215
454 1 2 0.0 1.1337030204 6.4261809184 27.0013904537
455 1 1 0.0 1.1261259567 6.475366481 26.0322259199
456 1 1 0.0 1.1633723763 7.3490704622 27.3016710333
457 1 2 0.0 1.0954480565 9.040976702 23.2549121191
458 1 1 0.0 1.0837221372 8.1342782895 23.6014741336
459 1 1 0.0 1.9077033823 9.435357608 23.606041468
460 1 2 0.0 3.3998400306 10.2725650231 24.182296784
461 1 1 0.0 3.417098223 10.3237165973 25.1495508166
462 1 1 0.0 3.3518629517 11.1941828938 23.8799002834
463 1 2 0.0 1.193878342 9.0118266396 27.8556453806
464 1 1 0.0 1.1752846131 9.0427791117 28.824869502
465 1 1 0.0 0.4014495856 9.4921524428 27.5687332422
466 1 2 0.0 3.4616352535 10.3333666983 26.9476806137
467 1 1 0.0 2.6648028875 9.8805354924 27.2621151191
468 1 1 0.0 3.3945158249 11.2361620378 27.2944162418
469 1 2 0.0 3.292969894 12.8828183524 23.3681508381
470 1 1 0.0 3.3249301577 12.9499923429 22.4009042113
471 1 1 0.0 4.1000445915 13.3293638237 23.6720235229
472 1 2 0.0 1.130896454 14.3534445703 24.2884784805
473 1 1 0.0 0.3360883892 13.8867206394 23.9880578482
474 1 1 0.0 1.8740400127 13.8133283899 23.9788557759
475 1 2 0.0 3.3438489084 12.9251813998 27.924472156
476 1 1 0.0 2.6060151846 13.4563108962 27.5866292974
477 1 1 0.0 4.1448356402 13.3568079308 27.5881201676
478 1 2 0.0 1.2108416661 14.4474491555 27.0380208111
479 1 1 0.0 1.172714087 14.4472614162 26.069150507
480 1 1 0.0 0.4282016704 13.9434964267 27.3159649905
481 1 2 0.0 5.5930872837 1.1827282181 23.4059657058
482 1 1 0.0 5.5975849755 1.2904034006 22.4423403427
483 1 1 0.0 6.3822072535 1.6610015949 23.7124822747
484 1 2 0.0 7.7693964544 2.5703266784 24.229008117
485 1 1 0.0 7.8203957902 2.560259379 25.199361691
486 1 1 0.0 8.5922022575 2.1515897218 23.9314406335
487 1 2 0.0 5.7269287641 1.1684166946 27.8928219886
488 1 1 0.0 5.7065045607 1.1888179612 28.8618721325
489 1 1 0.0 4.9216365345 1.6338811714 27.6148609093
490 1 2 0.0 7.894413 2.5154314868 26.9395444771
491 1 1 0.0 7.1310625925 2.0347721207 27.2986198074
492 1 1 0.0 7.8306314191 3.4132000619 27.3020491559
493 1 2 0.0 7.7834937604 5.1340892692 23.2505198729
494 1 1 0.0 6.9814623003 5.5617583612 23.5904667334
495 1 1 0.0 7.7516174749 4.2269331829 23.5926600253
496 1 2 0.0 5.5378057537 6.3747075378 24.2162363998
497 1 1 0.0 5.5488520401 6.3901021821 25.1871130497
498 1 1 0.0 5.5879037872 7.3017981546 23.9400938127
499 1 2 0.0 7.7606755946 5.0818618949 27.9108058058
500 1 1 0.0 7.7936480589 5.1007374538 28.8806865338
501 1 1 0.0 8.5598925311 5.5478618929 27.6185158658
502 1 2 0.0 5.5378373102 6.3879527614 26.9574243836
503 1 1 0.0 6.3214406081 5.9314319632 27.3018929663
504 1 1 0.0 5.5920069708 7.287610812 27.3170199751
505 1 2 0.0 5.6777845587 9.0212322938 23.3371072723
506 1 1 0.0 5.63803416 9.0635264986 22.3701704777
507 1 1 0.0 4.8746218412 9.4789372458 23.6364081341
508 1 2 0.0 7.9454970515 10.2769006151 24.2746394296
509 1 1 0.0 7.142528145 9.8515924413 23.9350659241
510 1 1 0.0 7.9124732947 11.1897905442 23.9463050369
511 1 2 0.0 5.6794854804 8.9554296789 27.9300647369
512 1 1 0.0 4.9324720604 9.4604748423 27.5765133665
513 1 1 0.0 6.4722504633 9.4103978062 27.6002910178
514 1 2 0.0 7.8873732208 10.2849903407 27.0167957399
515 1 1 0.0 7.9236918403 10.275289882 26.0467344816
516 1 1 0.0 8.6945448255 9.831524437 27.3058981617
517 1 2 0.0 7.8804960955 12.8826218835 23.365248886
518 1 1 0.0 7.9072558565 12.9249183877 22.3953202223
519 1 1 0.0 8.6514700055 13.3903806378 23.6604394668
520 1 2 0.0 5.5640732836 14.1491098533 24.2160997309
521 1 1 0.0 6.3822423747 13.7378964842 23.8985086506
522 1 1 0.0 5.5919902568 15.067628617 23.9012656634
523 1 2 0.0 7.9421026888 12.8999179337 27.9210432862
524 1 1 0.0 7.1289896849 13.2944226219 27.5704890401
525 1 1 0.0 7.9212518196 11.9758884913 27.6276943287
526 1 2 0.0 5.6348328872 14.1020322055 26.9601025745
527 1 1 0.0 5.6031747058 14.1198491829 25.9901079832
528 1 1 0.0 5.6736505849 15.0290419798 27.2378731444
529 1 2 0.0 10.066711036 1.3570683047 23.3571898549
530 1 1 0.0 10.0821333587 0.4418987667 23.6806720962
531 1 1 0.0 10.8744911241 1.7671888244 23.7023927954
532 1 2 0.0 12.3733767294 2.5703244495 24.2617130356
533 1 1 0.0 13.1729282944 2.1302329602 23.9300459014
534 1 1 0.0 12.4096465596 3.4718628597 23.9105836956
535 1 2 0.0 10.1979161315 1.2724150567 27.7928131623
536 1 1 0.0 10.165607001 1.3095962699 28.7628095343
537 1 1 0.0 9.3897668893 1.7163386373 27.4926811074
538 1 2 0.0 12.4559856508 2.611657279 27.0092957856
539 1 1 0.0 12.434786594 2.5973522962 26.040121057
540 1 1 0.0 11.6595721521 2.1298065458 27.2853405779
541 1 2 0.0 12.4029402578 5.1976355447 23.3090940277
542 1 1 0.0 12.3680724097 5.2301159822 22.3391241976
543 1 1 0.0 11.5791009726 5.6123151872 23.6035172216
544 1 2 0.0 10.0499347495 6.4077393936 24.1957675245
545 1 1 0.0 9.9980387723 6.3398816117 25.1601391064
546 1 1 0.0 9.2578501383 5.9617585255 23.8566972485
547 1 2 0.0 12.3553473981 5.2085323153 27.9446017791
548 1 1 0.0 12.4084658201 4.298368881 27.6138563211
549 1 1 0.0 13.1530244363 5.6481057076 27.6104348608
550 1 2 0.0 10.0170541776 6.3798786069 27.0076422299
551 1 1 0.0 10.8352406627 5.9780188299 27.338162374
552 1 1 0.0 10.0564609939 7.305369653 27.2934031801
553 1 2 0.0 10.2125495649 9.030724923 23.3600031668
554 1 1 0.0 9.3954686193 9.4500961041 23.6735906222
555 1 1 0.0 10.1600375469 8.1109259309 23.6607424036
556 1 2 0.0 12.3917607342 10.4005564134 24.2670440743
557 1 1 0.0 11.6089006723 9.9208851083 23.9486863979
558 1 1 0.0 13.1506413883 9.9241994825 23.8988570085
559 1 2 0.0 10.1669703889 9.0061692754 27.8866824065
560 1 1 0.0 10.2080808381 9.0271820184 28.85508681
561 1 1 0.0 10.9628831629 9.472892602 27.5891069829
562 1 2 0.0 12.4342075557 10.3541738153 27.0300906555
563 1 1 0.0 12.4302818579 10.3763692914 26.0603789998
564 1 1 0.0 12.4801565266 11.2819539008 27.3064299664
565 1 2 0.0 12.3717930834 13.0122642063 23.4376961467
566 1 1 0.0 12.332546506 12.9699014179 22.4705520729
567 1 1 0.0 12.3804371177 12.0895877767 23.740396332
568 1 2 0.0 10.0963208708 14.3291281577 24.2378224897
569 1 1 0.0 10.127134171 14.2879308907 25.2064871261
570 1 1 0.0 10.9056116449 13.8776761813 23.9490831685
571 1 2 0.0 12.5196357669 13.0078980197 27.8447219925
572 1 1 0.0 12.4798912158 13.0337185315 28.8139103352
573 1 1 0.0 11.6950060593 13.4276495779 27.5518974271
574 1 2 0.0 10.1979779827 14.1983350925 26.9906353052
575 1 1 0.0 9.4063768733 13.7516607373 27.3310897937
576 1 1 0.0 10.1502488922 15.1112010429 27.3130468625
577 1 2 0.0 1.2284306887 17.0052495742 1.5172361783